Program Version,EnergyPlus, Version 8.5.0-c87e61b44b, YMD=2019.12.16 23:25
1,5,Environment Title[],Latitude[deg],Longitude[deg],Time Zone[],Elevation[m]
2,6,Day of Simulation[],Month[],Day of Month[],DST Indicator[1=yes 0=no],Hour[],StartMinute[],EndMinute[],DayType
3,3,Cumulative Day of Simulation[],Month[],Day of Month[],DST Indicator[1=yes 0=no],DayType  ! When Daily Meters Requested
4,2,Cumulative Days of Simulation[],Month[]  ! When Monthly Meters Requested
5,1,Cumulative Days of Simulation[] ! When Run Period Meters Requested
9,1,Electricity:Facility [J] !TimeStep
484,1,DistrictCooling:Facility [J] !TimeStep
453,1,DistrictHeating:Facility [J] !TimeStep
End of Data Dictionary
1,RUN PERIOD 1,  41.80,  12.23,   1.00,   3.00
2,1, 1, 1, 0, 1, 0.00,15.00,Sunday
9,15719937.6898754
453,0.0
484,0.0
2,1, 1, 1, 0, 1,15.00,30.00,Sunday
9,15719937.6898754
453,0.0
484,0.0
2,1, 1, 1, 0, 1,30.00,45.00,Sunday
9,15719937.6898754
453,0.0
484,0.0
2,1, 1, 1, 0, 1,45.00,60.00,Sunday
9,15719937.6898754
453,0.0
484,0.0
2,1, 1, 1, 0, 2, 0.00,15.00,Sunday
9,15719937.6898754
453,0.0
484,0.0
2,1, 1, 1, 0, 2,15.00,30.00,Sunday
9,15719937.6898754
453,278746.806621073
484,0.0
2,1, 1, 1, 0, 2,30.00,45.00,Sunday
9,15719937.6898754
453,310200.22972886
484,0.0
2,1, 1, 1, 0, 2,45.00,60.00,Sunday
9,15719937.6898754
453,312990.293627472
484,0.0
2,1, 1, 1, 0, 3, 0.00,15.00,Sunday
9,15719937.6898754
453,454616.817687532
484,0.0
2,1, 1, 1, 0, 3,15.00,30.00,Sunday
9,15719937.6898754
453,533942.499925267
484,0.0
2,1, 1, 1, 0, 3,30.00,45.00,Sunday
9,15719937.6898754
453,607916.692393413
484,0.0
2,1, 1, 1, 0, 3,45.00,60.00,Sunday
9,15719937.6898754
453,674415.624464574
484,0.0
2,1, 1, 1, 0, 4, 0.00,15.00,Sunday
9,15719937.6898754
453,740711.449227586
484,0.0
2,1, 1, 1, 0, 4,15.00,30.00,Sunday
9,15719937.6898754
453,805351.473324226
484,0.0
2,1, 1, 1, 0, 4,30.00,45.00,Sunday
9,15719937.6898754
453,867938.977360459
484,0.0
2,1, 1, 1, 0, 4,45.00,60.00,Sunday
9,15719937.6898754
453,928549.765696024
484,0.0
2,1, 1, 1, 0, 5, 0.00,15.00,Sunday
9,15719937.6898754
453,1008771.02615577
484,0.0
2,1, 1, 1, 0, 5,15.00,30.00,Sunday
9,15719937.6898754
453,1088146.82445038
484,0.0
2,1, 1, 1, 0, 5,30.00,45.00,Sunday
9,15719937.6898754
453,1166348.40409918
484,0.0
2,1, 1, 1, 0, 5,45.00,60.00,Sunday
9,15719937.6898754
453,1243219.48508242
484,0.0
2,1, 1, 1, 0, 6, 0.00,15.00,Sunday
9,15719937.6898754
453,1281807.75438667
484,0.0
2,1, 1, 1, 0, 6,15.00,30.00,Sunday
9,15719937.6898754
453,1317838.12608139
484,0.0
2,1, 1, 1, 0, 6,30.00,45.00,Sunday
9,15719937.6898754
453,1351600.14710935
484,0.0
2,1, 1, 1, 0, 6,45.00,60.00,Sunday
9,15719937.6898754
453,1383182.52850576
484,0.0
2,1, 1, 1, 0, 7, 0.00,15.00,Sunday
9,15719937.6898754
453,1214050.68752825
484,0.0
2,1, 1, 1, 0, 7,15.00,30.00,Sunday
9,15719937.6898754
453,1044460.12689507
484,0.0
2,1, 1, 1, 0, 7,30.00,45.00,Sunday
9,15719937.6898754
453,869060.95026455
484,0.0
2,1, 1, 1, 0, 7,45.00,60.00,Sunday
9,15719937.6898754
453,689644.847579004
484,0.0
2,1, 1, 1, 0, 8, 0.00,15.00,Sunday
9,15719937.6898754
453,706169.559054193
484,0.0
2,1, 1, 1, 0, 8,15.00,30.00,Sunday
9,15719937.6898754
453,722269.480555169
484,0.0
2,1, 1, 1, 0, 8,30.00,45.00,Sunday
9,15719937.6898754
453,709931.767648692
484,0.0
2,1, 1, 1, 0, 8,45.00,60.00,Sunday
9,15719937.6898754
453,689737.248099642
484,0.0
2,1, 1, 1, 0, 9, 0.00,15.00,Sunday
9,15719937.6898754
453,669806.248564477
484,0.0
2,1, 1, 1, 0, 9,15.00,30.00,Sunday
9,15719937.6898754
453,652103.742914002
484,0.0
2,1, 1, 1, 0, 9,30.00,45.00,Sunday
9,15719937.6898754
453,604198.83097254
484,0.0
2,1, 1, 1, 0, 9,45.00,60.00,Sunday
9,15719937.6898754
453,520959.509004923
484,0.0
2,1, 1, 1, 0,10, 0.00,15.00,Sunday
9,15719937.6898754
453,434632.750857375
484,0.0
2,1, 1, 1, 0,10,15.00,30.00,Sunday
9,15719937.6898754
453,345569.075386098
484,0.0
2,1, 1, 1, 0,10,30.00,45.00,Sunday
9,15719937.6898754
453,258139.227426157
484,0.0
2,1, 1, 1, 0,10,45.00,60.00,Sunday
9,15719937.6898754
453,175180.554233236
484,0.0
2,1, 1, 1, 0,11, 0.00,15.00,Sunday
9,15719937.6898754
453,0.0
484,0.0
2,1, 1, 1, 0,11,15.00,30.00,Sunday
9,15719937.6898754
453,0.0
484,0.0
2,1, 1, 1, 0,11,30.00,45.00,Sunday
9,15719937.6898754
453,0.0
484,0.0
2,1, 1, 1, 0,11,45.00,60.00,Sunday
9,15719937.6898754
453,0.0
484,0.0
2,1, 1, 1, 0,12, 0.00,15.00,Sunday
9,15719937.6898754
453,0.0
484,0.0
2,1, 1, 1, 0,12,15.00,30.00,Sunday
9,15719937.6898754
453,0.0
484,0.0
2,1, 1, 1, 0,12,30.00,45.00,Sunday
9,15719937.6898754
453,0.0
484,0.0
2,1, 1, 1, 0,12,45.00,60.00,Sunday
9,15719937.6898754
453,0.0
484,0.0
2,1, 1, 1, 0,13, 0.00,15.00,Sunday
9,15719937.6898754
453,0.0
484,0.0
2,1, 1, 1, 0,13,15.00,30.00,Sunday
9,15719937.6898754
453,0.0
484,0.0
2,1, 1, 1, 0,13,30.00,45.00,Sunday
9,15719937.6898754
453,0.0
484,0.0
2,1, 1, 1, 0,13,45.00,60.00,Sunday
9,15719937.6898754
453,0.0
484,0.0
2,1, 1, 1, 0,14, 0.00,15.00,Sunday
9,15719937.6898754
453,0.0
484,0.0
2,1, 1, 1, 0,14,15.00,30.00,Sunday
9,15719937.6898754
453,0.0
484,0.0
2,1, 1, 1, 0,14,30.00,45.00,Sunday
9,15719937.6898754
453,0.0
484,0.0
2,1, 1, 1, 0,14,45.00,60.00,Sunday
9,15719937.6898754
453,0.0
484,0.0
2,1, 1, 1, 0,15, 0.00,15.00,Sunday
9,15719937.6898754
453,0.0
484,0.0
2,1, 1, 1, 0,15,15.00,30.00,Sunday
9,15719937.6898754
453,0.0
484,0.0
2,1, 1, 1, 0,15,30.00,45.00,Sunday
9,15719937.6898754
453,0.0
484,0.0
2,1, 1, 1, 0,15,45.00,60.00,Sunday
9,15719937.6898754
453,0.0
484,0.0
2,1, 1, 1, 0,16, 0.00,15.00,Sunday
9,15719937.6898754
453,0.0
484,0.0
2,1, 1, 1, 0,16,15.00,30.00,Sunday
9,15719937.6898754
453,0.0
484,0.0
2,1, 1, 1, 0,16,30.00,45.00,Sunday
9,15719937.6898754
453,0.0
484,0.0
2,1, 1, 1, 0,16,45.00,60.00,Sunday
9,15719937.6898754
453,0.0
484,0.0
2,1, 1, 1, 0,17, 0.00,15.00,Sunday
9,15719937.6898754
453,0.0
484,0.0
2,1, 1, 1, 0,17,15.00,30.00,Sunday
9,15719937.6898754
453,0.0
484,0.0
2,1, 1, 1, 0,17,30.00,45.00,Sunday
9,15719937.6898754
453,0.0
484,0.0
2,1, 1, 1, 0,17,45.00,60.00,Sunday
9,15719937.6898754
453,0.0
484,0.0
2,1, 1, 1, 0,18, 0.00,15.00,Sunday
9,15719937.6898754
453,0.0
484,0.0
2,1, 1, 1, 0,18,15.00,30.00,Sunday
9,15719937.6898754
453,0.0
484,0.0
2,1, 1, 1, 0,18,30.00,45.00,Sunday
9,15719937.6898754
453,0.0
484,0.0
2,1, 1, 1, 0,18,45.00,60.00,Sunday
9,15719937.6898754
453,0.0
484,0.0
2,1, 1, 1, 0,19, 0.00,15.00,Sunday
9,15719937.6898754
453,0.0
484,0.0
2,1, 1, 1, 0,19,15.00,30.00,Sunday
9,15719937.6898754
453,0.0
484,0.0
2,1, 1, 1, 0,19,30.00,45.00,Sunday
9,15719937.6898754
453,0.0
484,0.0
2,1, 1, 1, 0,19,45.00,60.00,Sunday
9,15719937.6898754
453,0.0
484,0.0
2,1, 1, 1, 0,20, 0.00,15.00,Sunday
9,15719937.6898754
453,0.0
484,0.0
2,1, 1, 1, 0,20,15.00,30.00,Sunday
9,15719937.6898754
453,0.0
484,0.0
2,1, 1, 1, 0,20,30.00,45.00,Sunday
9,15719937.6898754
453,0.0
484,0.0
2,1, 1, 1, 0,20,45.00,60.00,Sunday
9,15719937.6898754
453,0.0
484,0.0
2,1, 1, 1, 0,21, 0.00,15.00,Sunday
9,15719937.6898754
453,0.0
484,0.0
2,1, 1, 1, 0,21,15.00,30.00,Sunday
9,15719937.6898754
453,0.0
484,0.0
2,1, 1, 1, 0,21,30.00,45.00,Sunday
9,15719937.6898754
453,0.0
484,0.0
2,1, 1, 1, 0,21,45.00,60.00,Sunday
9,15719937.6898754
453,0.0
484,0.0
2,1, 1, 1, 0,22, 0.00,15.00,Sunday
9,15719937.6898754
453,0.0
484,0.0
2,1, 1, 1, 0,22,15.00,30.00,Sunday
9,15719937.6898754
453,0.0
484,0.0
2,1, 1, 1, 0,22,30.00,45.00,Sunday
9,15719937.6898754
453,0.0
484,0.0
2,1, 1, 1, 0,22,45.00,60.00,Sunday
9,15719937.6898754
453,0.0
484,0.0
2,1, 1, 1, 0,23, 0.00,15.00,Sunday
9,15719937.6898754
453,0.0
484,0.0
2,1, 1, 1, 0,23,15.00,30.00,Sunday
9,15719937.6898754
453,0.0
484,0.0
2,1, 1, 1, 0,23,30.00,45.00,Sunday
9,15719937.6898754
453,0.0
484,0.0
2,1, 1, 1, 0,23,45.00,60.00,Sunday
9,15719937.6898754
453,0.0
484,0.0
2,1, 1, 1, 0,24, 0.00,15.00,Sunday
9,15719937.6898754
453,0.0
484,0.0
2,1, 1, 1, 0,24,15.00,30.00,Sunday
9,15719937.6898754
453,0.0
484,0.0
2,1, 1, 1, 0,24,30.00,45.00,Sunday
9,15719937.6898754
453,0.0
484,0.0
2,1, 1, 1, 0,24,45.00,60.00,Sunday
9,15719937.6898754
453,0.0
484,0.0
2,2, 1, 2, 0, 1, 0.00,15.00,Monday
9,20375759.501519
453,0.0
484,0.0
2,2, 1, 2, 0, 1,15.00,30.00,Monday
9,20375759.501519
453,0.0
484,0.0
2,2, 1, 2, 0, 1,30.00,45.00,Monday
9,20375759.501519
453,0.0
484,0.0
2,2, 1, 2, 0, 1,45.00,60.00,Monday
9,20375759.501519
453,0.0
484,0.0
2,2, 1, 2, 0, 2, 0.00,15.00,Monday
9,20375759.501519
453,0.0
484,0.0
2,2, 1, 2, 0, 2,15.00,30.00,Monday
9,20375759.501519
453,0.0
484,0.0
2,2, 1, 2, 0, 2,30.00,45.00,Monday
9,20375759.501519
453,0.0
484,0.0
2,2, 1, 2, 0, 2,45.00,60.00,Monday
9,20375759.501519
453,0.0
484,0.0
2,2, 1, 2, 0, 3, 0.00,15.00,Monday
9,20375759.501519
453,0.0
484,0.0
2,2, 1, 2, 0, 3,15.00,30.00,Monday
9,20375759.501519
453,0.0
484,0.0
2,2, 1, 2, 0, 3,30.00,45.00,Monday
9,20375759.501519
453,0.0
484,0.0
2,2, 1, 2, 0, 3,45.00,60.00,Monday
9,20375759.501519
453,0.0
484,0.0
2,2, 1, 2, 0, 4, 0.00,15.00,Monday
9,20375759.501519
453,0.0
484,0.0
2,2, 1, 2, 0, 4,15.00,30.00,Monday
9,20375759.501519
453,0.0
484,0.0
2,2, 1, 2, 0, 4,30.00,45.00,Monday
9,20375759.501519
453,0.0
484,0.0
2,2, 1, 2, 0, 4,45.00,60.00,Monday
9,20375759.501519
453,0.0
484,0.0
2,2, 1, 2, 0, 5, 0.00,15.00,Monday
9,20375759.501519
453,0.0
484,0.0
2,2, 1, 2, 0, 5,15.00,30.00,Monday
9,20375759.501519
453,0.0
484,0.0
2,2, 1, 2, 0, 5,30.00,45.00,Monday
9,20375759.501519
453,0.0
484,0.0
2,2, 1, 2, 0, 5,45.00,60.00,Monday
9,20375759.501519
453,0.0
484,0.0
2,2, 1, 2, 0, 6, 0.00,15.00,Monday
9,22128231.7564635
453,0.0
484,0.0
2,2, 1, 2, 0, 6,15.00,30.00,Monday
9,22128231.7564635
453,0.0
484,0.0
2,2, 1, 2, 0, 6,30.00,45.00,Monday
9,22128231.7564635
453,0.0
484,0.0
2,2, 1, 2, 0, 6,45.00,60.00,Monday
9,22128231.7564635
453,0.0
484,0.0
2,2, 1, 2, 0, 7, 0.00,15.00,Monday
9,22128231.7564635
453,75605358.8829312
484,280487.23354918
2,2, 1, 2, 0, 7,15.00,30.00,Monday
9,22128231.7564635
453,0.0
484,0.0
2,2, 1, 2, 0, 7,30.00,45.00,Monday
9,22128231.7564635
453,25877679.7957982
484,0.0
2,2, 1, 2, 0, 7,45.00,60.00,Monday
9,22128231.7564635
453,35545228.9488683
484,0.0
2,2, 1, 2, 0, 8, 0.00,15.00,Monday
9,29138120.7762415
453,18064325.3171016
484,0.0
2,2, 1, 2, 0, 8,15.00,30.00,Monday
9,29138120.7762415
453,18315785.5129429
484,169193.124158166
2,2, 1, 2, 0, 8,30.00,45.00,Monday
9,29138120.7762415
453,17181711.424893
484,201520.262699612
2,2, 1, 2, 0, 8,45.00,60.00,Monday
9,29138120.7762415
453,16020305.1195295
484,312797.381257432
2,2, 1, 2, 0, 9, 0.00,15.00,Monday
9,73446896.8937937
453,0.0
484,7368231.51688041
2,2, 1, 2, 0, 9,15.00,30.00,Monday
9,73446896.8937937
453,0.0
484,7499103.38765384
2,2, 1, 2, 0, 9,30.00,45.00,Monday
9,73446896.8937937
453,0.0
484,7537213.12703421
2,2, 1, 2, 0, 9,45.00,60.00,Monday
9,73446896.8937937
453,0.0
484,7482503.79066095
2,2, 1, 2, 0,10, 0.00,15.00,Monday
9,73446896.8937937
453,0.0
484,7408814.81141851
2,2, 1, 2, 0,10,15.00,30.00,Monday
9,73446896.8937937
453,0.0
484,7404715.95648566
2,2, 1, 2, 0,10,30.00,45.00,Monday
9,73446896.8937937
453,0.0
484,7440450.55577305
2,2, 1, 2, 0,10,45.00,60.00,Monday
9,73446896.8937937
453,0.0
484,7488534.94578335
2,2, 1, 2, 0,11, 0.00,15.00,Monday
9,73446896.8937937
453,0.0
484,7621193.37752274
2,2, 1, 2, 0,11,15.00,30.00,Monday
9,73446896.8937937
453,0.0
484,7747320.71982052
2,2, 1, 2, 0,11,30.00,45.00,Monday
9,73446896.8937937
453,0.0
484,7867814.25931918
2,2, 1, 2, 0,11,45.00,60.00,Monday
9,73446896.8937937
453,0.0
484,7985774.4165877
2,2, 1, 2, 0,12, 0.00,15.00,Monday
9,73446896.8937937
453,0.0
484,8091212.99594191
2,2, 1, 2, 0,12,15.00,30.00,Monday
9,73446896.8937937
453,0.0
484,8188432.20106285
2,2, 1, 2, 0,12,30.00,45.00,Monday
9,73446896.8937937
453,0.0
484,8277104.15843043
2,2, 1, 2, 0,12,45.00,60.00,Monday
9,73446896.8937937
453,0.0
484,8360779.84458531
2,2, 1, 2, 0,13, 0.00,15.00,Monday
9,68791075.0821501
453,0.0
484,11677135.2292408
2,2, 1, 2, 0,13,15.00,30.00,Monday
9,68791075.0821501
453,0.0
484,12923910.8684183
2,2, 1, 2, 0,13,30.00,45.00,Monday
9,68791075.0821501
453,0.0
484,16684792.2165386
2,2, 1, 2, 0,13,45.00,60.00,Monday
9,68791075.0821501
453,0.0
484,18382553.2530914
2,2, 1, 2, 0,14, 0.00,15.00,Monday
9,73446896.8937937
453,0.0
484,16915389.7034083
2,2, 1, 2, 0,14,15.00,30.00,Monday
9,73446896.8937937
453,0.0
484,18470797.8040811
2,2, 1, 2, 0,14,30.00,45.00,Monday
9,73446896.8937937
453,0.0
484,19549448.8999553
2,2, 1, 2, 0,14,45.00,60.00,Monday
9,73446896.8937937
453,0.0
484,20566219.1525543
2,2, 1, 2, 0,15, 0.00,15.00,Monday
9,73446896.8937937
453,0.0
484,21412176.9004861
2,2, 1, 2, 0,15,15.00,30.00,Monday
9,73446896.8937937
453,0.0
484,22051438.0015323
2,2, 1, 2, 0,15,30.00,45.00,Monday
9,73446896.8937937
453,0.0
484,22618894.9884383
2,2, 1, 2, 0,15,45.00,60.00,Monday
9,73446896.8937937
453,0.0
484,22888122.1398614
2,2, 1, 2, 0,16, 0.00,15.00,Monday
9,73446896.8937937
453,0.0
484,23040099.1645872
2,2, 1, 2, 0,16,15.00,30.00,Monday
9,73446896.8937937
453,0.0
484,23270110.7026004
2,2, 1, 2, 0,16,30.00,45.00,Monday
9,73446896.8937937
453,0.0
484,23654712.1720521
2,2, 1, 2, 0,16,45.00,60.00,Monday
9,73446896.8937937
453,0.0
484,24139672.8408672
2,2, 1, 2, 0,17, 0.00,15.00,Monday
9,73446896.8937937
453,0.0
484,23647305.9463511
2,2, 1, 2, 0,17,15.00,30.00,Monday
9,73446896.8937937
453,0.0
484,22773225.7274509
2,2, 1, 2, 0,17,30.00,45.00,Monday
9,73446896.8937937
453,0.0
484,21813446.1914445
2,2, 1, 2, 0,17,45.00,60.00,Monday
9,73446896.8937937
453,0.0
484,20591129.6353801
2,2, 1, 2, 0,18, 0.00,15.00,Monday
9,61781186.0623721
453,0.0
484,12341900.323447
2,2, 1, 2, 0,18,15.00,30.00,Monday
9,61781186.0623721
453,0.0
484,11758074.1353102
2,2, 1, 2, 0,18,30.00,45.00,Monday
9,61781186.0623721
453,0.0
484,11296219.179019
2,2, 1, 2, 0,18,45.00,60.00,Monday
9,61781186.0623721
453,0.0
484,10852399.1331321
2,2, 1, 2, 0,19, 0.00,15.00,Monday
9,45459653.4193068
453,0.0
484,3787687.77492566
2,2, 1, 2, 0,19,15.00,30.00,Monday
9,45459653.4193068
453,0.0
484,3599017.01050696
2,2, 1, 2, 0,19,30.00,45.00,Monday
9,45459653.4193068
453,0.0
484,3400050.39490794
2,2, 1, 2, 0,19,45.00,60.00,Monday
9,45459653.4193068
453,0.0
484,3172408.38894478
2,2, 1, 2, 0,20, 0.00,15.00,Monday
9,45459653.4193068
453,0.0
484,3227695.85193129
2,2, 1, 2, 0,20,15.00,30.00,Monday
9,45459653.4193068
453,0.0
484,3282832.52446115
2,2, 1, 2, 0,20,30.00,45.00,Monday
9,45459653.4193068
453,0.0
484,3389596.84552872
2,2, 1, 2, 0,20,45.00,60.00,Monday
9,45459653.4193068
453,0.0
484,3702731.01951568
2,2, 1, 2, 0,21, 0.00,15.00,Monday
9,33793942.5878852
453,0.0
484,2576283.07140026
2,2, 1, 2, 0,21,15.00,30.00,Monday
9,33793942.5878852
453,0.0
484,2465382.7340671
2,2, 1, 2, 0,21,30.00,45.00,Monday
9,33793942.5878852
453,431470.123711393
484,2390483.69334118
2,2, 1, 2, 0,21,45.00,60.00,Monday
9,33793942.5878852
453,684731.014349032
484,2331971.70169899
2,2, 1, 2, 0,22, 0.00,15.00,Monday
9,33793942.5878852
453,750081.363427387
484,2240448.94406107
2,2, 1, 2, 0,22,15.00,30.00,Monday
9,33793942.5878852
453,1149616.21679007
484,2160470.68036175
2,2, 1, 2, 0,22,30.00,45.00,Monday
9,33793942.5878852
453,1406947.3402743
484,2088125.85597399
2,2, 1, 2, 0,22,45.00,60.00,Monday
9,33793942.5878852
453,1644287.50555318
484,2020572.54865433
2,2, 1, 2, 0,23, 0.00,15.00,Monday
9,22128231.7564635
453,0.0
484,0.0
2,2, 1, 2, 0,23,15.00,30.00,Monday
9,22128231.7564635
453,0.0
484,0.0
2,2, 1, 2, 0,23,30.00,45.00,Monday
9,22128231.7564635
453,0.0
484,0.0
2,2, 1, 2, 0,23,45.00,60.00,Monday
9,22128231.7564635
453,0.0
484,0.0
2,2, 1, 2, 0,24, 0.00,15.00,Monday
9,20375759.501519
453,0.0
484,0.0
2,2, 1, 2, 0,24,15.00,30.00,Monday
9,20375759.501519
453,0.0
484,0.0
2,2, 1, 2, 0,24,30.00,45.00,Monday
9,20375759.501519
453,0.0
484,0.0
2,2, 1, 2, 0,24,45.00,60.00,Monday
9,20375759.501519
453,0.0
484,0.0
2,3, 1, 3, 0, 1, 0.00,15.00,Tuesday
9,20375759.501519
453,0.0
484,0.0
2,3, 1, 3, 0, 1,15.00,30.00,Tuesday
9,20375759.501519
453,0.0
484,0.0
2,3, 1, 3, 0, 1,30.00,45.00,Tuesday
9,20375759.501519
453,0.0
484,0.0
2,3, 1, 3, 0, 1,45.00,60.00,Tuesday
9,20375759.501519
453,0.0
484,0.0
2,3, 1, 3, 0, 2, 0.00,15.00,Tuesday
9,20375759.501519
453,0.0
484,0.0
2,3, 1, 3, 0, 2,15.00,30.00,Tuesday
9,20375759.501519
453,0.0
484,0.0
2,3, 1, 3, 0, 2,30.00,45.00,Tuesday
9,20375759.501519
453,0.0
484,0.0
2,3, 1, 3, 0, 2,45.00,60.00,Tuesday
9,20375759.501519
453,0.0
484,0.0
2,3, 1, 3, 0, 3, 0.00,15.00,Tuesday
9,20375759.501519
453,0.0
484,0.0
2,3, 1, 3, 0, 3,15.00,30.00,Tuesday
9,20375759.501519
453,0.0
484,0.0
2,3, 1, 3, 0, 3,30.00,45.00,Tuesday
9,20375759.501519
453,0.0
484,0.0
2,3, 1, 3, 0, 3,45.00,60.00,Tuesday
9,20375759.501519
453,0.0
484,0.0
2,3, 1, 3, 0, 4, 0.00,15.00,Tuesday
9,20375759.501519
453,0.0
484,0.0
2,3, 1, 3, 0, 4,15.00,30.00,Tuesday
9,20375759.501519
453,0.0
484,0.0
2,3, 1, 3, 0, 4,30.00,45.00,Tuesday
9,20375759.501519
453,0.0
484,0.0
2,3, 1, 3, 0, 4,45.00,60.00,Tuesday
9,20375759.501519
453,0.0
484,0.0
2,3, 1, 3, 0, 5, 0.00,15.00,Tuesday
9,20375759.501519
453,0.0
484,0.0
2,3, 1, 3, 0, 5,15.00,30.00,Tuesday
9,20375759.501519
453,0.0
484,0.0
2,3, 1, 3, 0, 5,30.00,45.00,Tuesday
9,20375759.501519
453,0.0
484,0.0
2,3, 1, 3, 0, 5,45.00,60.00,Tuesday
9,20375759.501519
453,0.0
484,0.0
2,3, 1, 3, 0, 6, 0.00,15.00,Tuesday
9,22128231.7564635
453,0.0
484,0.0
2,3, 1, 3, 0, 6,15.00,30.00,Tuesday
9,22128231.7564635
453,0.0
484,0.0
2,3, 1, 3, 0, 6,30.00,45.00,Tuesday
9,22128231.7564635
453,0.0
484,0.0
2,3, 1, 3, 0, 6,45.00,60.00,Tuesday
9,22128231.7564635
453,0.0
484,0.0
2,3, 1, 3, 0, 7, 0.00,15.00,Tuesday
9,22128231.7564635
453,50202737.2068944
484,1530007.37937332
2,3, 1, 3, 0, 7,15.00,30.00,Tuesday
9,22128231.7564635
453,14158533.4903532
484,0.0
2,3, 1, 3, 0, 7,30.00,45.00,Tuesday
9,22128231.7564635
453,37735729.5764614
484,0.0
2,3, 1, 3, 0, 7,45.00,60.00,Tuesday
9,22128231.7564635
453,16770495.6303644
484,0.0
2,3, 1, 3, 0, 8, 0.00,15.00,Tuesday
9,29138120.7762415
453,15694766.1071347
484,0.0
2,3, 1, 3, 0, 8,15.00,30.00,Tuesday
9,29138120.7762415
453,14926044.2080357
484,0.0
2,3, 1, 3, 0, 8,30.00,45.00,Tuesday
9,29138120.7762415
453,13784450.3071453
484,0.0
2,3, 1, 3, 0, 8,45.00,60.00,Tuesday
9,29138120.7762415
453,12544739.7049747
484,0.0
2,3, 1, 3, 0, 9, 0.00,15.00,Tuesday
9,73446896.8937937
453,3725192.74297273
484,1663966.58233935
2,3, 1, 3, 0, 9,15.00,30.00,Tuesday
9,73446896.8937937
453,2182889.98150993
484,2777086.76043871
2,3, 1, 3, 0, 9,30.00,45.00,Tuesday
9,73446896.8937937
453,1516045.10334615
484,2312981.99543377
2,3, 1, 3, 0, 9,45.00,60.00,Tuesday
9,73446896.8937937
453,872730.123152778
484,2563290.76371949
2,3, 1, 3, 0,10, 0.00,15.00,Tuesday
9,73446896.8937937
453,272780.572378481
484,2741820.57174116
2,3, 1, 3, 0,10,15.00,30.00,Tuesday
9,73446896.8937937
453,0.0
484,2921281.45568041
2,3, 1, 3, 0,10,30.00,45.00,Tuesday
9,73446896.8937937
453,0.0
484,3092563.44157148
2,3, 1, 3, 0,10,45.00,60.00,Tuesday
9,73446896.8937937
453,0.0
484,3256068.00044576
2,3, 1, 3, 0,11, 0.00,15.00,Tuesday
9,73446896.8937937
453,0.0
484,3549558.23885667
2,3, 1, 3, 0,11,15.00,30.00,Tuesday
9,73446896.8937937
453,0.0
484,3843140.8828776
2,3, 1, 3, 0,11,30.00,45.00,Tuesday
9,73446896.8937937
453,0.0
484,4137416.34285599
2,3, 1, 3, 0,11,45.00,60.00,Tuesday
9,73446896.8937937
453,0.0
484,4431297.75925684
2,3, 1, 3, 0,12, 0.00,15.00,Tuesday
9,73446896.8937937
453,0.0
484,4713661.95228882
2,3, 1, 3, 0,12,15.00,30.00,Tuesday
9,73446896.8937937
453,0.0
484,4998226.99010092
2,3, 1, 3, 0,12,30.00,45.00,Tuesday
9,73446896.8937937
453,0.0
484,5285877.34820049
2,3, 1, 3, 0,12,45.00,60.00,Tuesday
9,73446896.8937937
453,0.0
484,5574864.12025229
2,3, 1, 3, 0,13, 0.00,15.00,Tuesday
9,68791075.0821501
453,0.0
484,8861301.78421366
2,3, 1, 3, 0,13,15.00,30.00,Tuesday
9,68791075.0821501
453,0.0
484,12907208.4087122
2,3, 1, 3, 0,13,30.00,45.00,Tuesday
9,68791075.0821501
453,0.0
484,16562636.5481491
2,3, 1, 3, 0,13,45.00,60.00,Tuesday
9,68791075.0821501
453,0.0
484,18019539.7409049
2,3, 1, 3, 0,14, 0.00,15.00,Tuesday
9,73446896.8937937
453,0.0
484,15368565.5552491
2,3, 1, 3, 0,14,15.00,30.00,Tuesday
9,73446896.8937937
453,0.0
484,16429581.9796339
2,3, 1, 3, 0,14,30.00,45.00,Tuesday
9,73446896.8937937
453,0.0
484,17362045.7108547
2,3, 1, 3, 0,14,45.00,60.00,Tuesday
9,73446896.8937937
453,0.0
484,18222220.2163463
2,3, 1, 3, 0,15, 0.00,15.00,Tuesday
9,73446896.8937937
453,0.0
484,19043022.8559197
2,3, 1, 3, 0,15,15.00,30.00,Tuesday
9,73446896.8937937
453,0.0
484,19794486.228752
2,3, 1, 3, 0,15,30.00,45.00,Tuesday
9,73446896.8937937
453,0.0
484,20386413.8937976
2,3, 1, 3, 0,15,45.00,60.00,Tuesday
9,73446896.8937937
453,0.0
484,20867303.8908243
2,3, 1, 3, 0,16, 0.00,15.00,Tuesday
9,73446896.8937937
453,0.0
484,21197964.0784019
2,3, 1, 3, 0,16,15.00,30.00,Tuesday
9,73446896.8937937
453,0.0
484,21497553.2119815
2,3, 1, 3, 0,16,30.00,45.00,Tuesday
9,73446896.8937937
453,0.0
484,21629354.9690953
2,3, 1, 3, 0,16,45.00,60.00,Tuesday
9,73446896.8937937
453,0.0
484,21642574.6762067
2,3, 1, 3, 0,17, 0.00,15.00,Tuesday
9,73446896.8937937
453,0.0
484,19883058.1344079
2,3, 1, 3, 0,17,15.00,30.00,Tuesday
9,73446896.8937937
453,0.0
484,17847999.0151251
2,3, 1, 3, 0,17,30.00,45.00,Tuesday
9,73446896.8937937
453,0.0
484,16174644.4393182
2,3, 1, 3, 0,17,45.00,60.00,Tuesday
9,73446896.8937937
453,0.0
484,14479237.6518098
2,3, 1, 3, 0,18, 0.00,15.00,Tuesday
9,61781186.0623721
453,0.0
484,8174644.33447212
2,3, 1, 3, 0,18,15.00,30.00,Tuesday
9,61781186.0623721
453,0.0
484,6865053.93087279
2,3, 1, 3, 0,18,30.00,45.00,Tuesday
9,61781186.0623721
453,0.0
484,5641245.87628743
2,3, 1, 3, 0,18,45.00,60.00,Tuesday
9,61781186.0623721
453,0.0
484,4881250.29922597
2,3, 1, 3, 0,19, 0.00,15.00,Tuesday
9,45459653.4193068
453,0.0
484,1585198.31580264
2,3, 1, 3, 0,19,15.00,30.00,Tuesday
9,45459653.4193068
453,0.0
484,1406120.617867
2,3, 1, 3, 0,19,30.00,45.00,Tuesday
9,45459653.4193068
453,0.0
484,1216975.32109429
2,3, 1, 3, 0,19,45.00,60.00,Tuesday
9,45459653.4193068
453,0.0
484,1015164.8179488
2,3, 1, 3, 0,20, 0.00,15.00,Tuesday
9,45459653.4193068
453,0.0
484,900734.573204958
2,3, 1, 3, 0,20,15.00,30.00,Tuesday
9,45459653.4193068
453,378773.899447791
484,779187.30726968
2,3, 1, 3, 0,20,30.00,45.00,Tuesday
9,45459653.4193068
453,1022443.96811374
484,654650.365698339
2,3, 1, 3, 0,20,45.00,60.00,Tuesday
9,45459653.4193068
453,1175245.34279859
484,531156.670178721
2,3, 1, 3, 0,21, 0.00,15.00,Tuesday
9,33793942.5878852
453,2678312.91214324
484,2046549.57720952
2,3, 1, 3, 0,21,15.00,30.00,Tuesday
9,33793942.5878852
453,2962746.56955969
484,1896084.62841442
2,3, 1, 3, 0,21,30.00,45.00,Tuesday
9,33793942.5878852
453,3214141.96848457
484,1793708.15129226
2,3, 1, 3, 0,21,45.00,60.00,Tuesday
9,33793942.5878852
453,3454541.08359327
484,1710169.04896813
2,3, 1, 3, 0,22, 0.00,15.00,Tuesday
9,33793942.5878852
453,3713306.53263885
484,1637336.66987593
2,3, 1, 3, 0,22,15.00,30.00,Tuesday
9,33793942.5878852
453,3966772.22839515
484,1573070.25172376
2,3, 1, 3, 0,22,30.00,45.00,Tuesday
9,33793942.5878852
453,4183487.75944631
484,1514322.71943575
2,3, 1, 3, 0,22,45.00,60.00,Tuesday
9,33793942.5878852
453,4415260.01127173
484,1459392.82111699
2,3, 1, 3, 0,23, 0.00,15.00,Tuesday
9,22128231.7564635
453,0.0
484,0.0
2,3, 1, 3, 0,23,15.00,30.00,Tuesday
9,22128231.7564635
453,0.0
484,0.0
2,3, 1, 3, 0,23,30.00,45.00,Tuesday
9,22128231.7564635
453,0.0
484,0.0
2,3, 1, 3, 0,23,45.00,60.00,Tuesday
9,22128231.7564635
453,0.0
484,0.0
2,3, 1, 3, 0,24, 0.00,15.00,Tuesday
9,20375759.501519
453,0.0
484,0.0
2,3, 1, 3, 0,24,15.00,30.00,Tuesday
9,20375759.501519
453,0.0
484,0.0
2,3, 1, 3, 0,24,30.00,45.00,Tuesday
9,20375759.501519
453,0.0
484,0.0
2,3, 1, 3, 0,24,45.00,60.00,Tuesday
9,20375759.501519
453,0.0
484,0.0
2,4, 1, 4, 0, 1, 0.00,15.00,Wednesday
9,20375759.501519
453,0.0
484,0.0
2,4, 1, 4, 0, 1,15.00,30.00,Wednesday
9,20375759.501519
453,0.0
484,0.0
2,4, 1, 4, 0, 1,30.00,45.00,Wednesday
9,20375759.501519
453,0.0
484,0.0
2,4, 1, 4, 0, 1,45.00,60.00,Wednesday
9,20375759.501519
453,0.0
484,0.0
2,4, 1, 4, 0, 2, 0.00,15.00,Wednesday
9,20375759.501519
453,0.0
484,0.0
2,4, 1, 4, 0, 2,15.00,30.00,Wednesday
9,20375759.501519
453,0.0
484,0.0
2,4, 1, 4, 0, 2,30.00,45.00,Wednesday
9,20375759.501519
453,0.0
484,0.0
2,4, 1, 4, 0, 2,45.00,60.00,Wednesday
9,20375759.501519
453,0.0
484,0.0
2,4, 1, 4, 0, 3, 0.00,15.00,Wednesday
9,20375759.501519
453,0.0
484,0.0
2,4, 1, 4, 0, 3,15.00,30.00,Wednesday
9,20375759.501519
453,0.0
484,0.0
2,4, 1, 4, 0, 3,30.00,45.00,Wednesday
9,20375759.501519
453,0.0
484,0.0
2,4, 1, 4, 0, 3,45.00,60.00,Wednesday
9,20375759.501519
453,0.0
484,0.0
2,4, 1, 4, 0, 4, 0.00,15.00,Wednesday
9,20375759.501519
453,0.0
484,0.0
2,4, 1, 4, 0, 4,15.00,30.00,Wednesday
9,20375759.501519
453,0.0
484,0.0
2,4, 1, 4, 0, 4,30.00,45.00,Wednesday
9,20375759.501519
453,0.0
484,0.0
2,4, 1, 4, 0, 4,45.00,60.00,Wednesday
9,20375759.501519
453,0.0
484,0.0
2,4, 1, 4, 0, 5, 0.00,15.00,Wednesday
9,20375759.501519
453,0.0
484,0.0
2,4, 1, 4, 0, 5,15.00,30.00,Wednesday
9,20375759.501519
453,0.0
484,0.0
2,4, 1, 4, 0, 5,30.00,45.00,Wednesday
9,20375759.501519
453,0.0
484,0.0
2,4, 1, 4, 0, 5,45.00,60.00,Wednesday
9,20375759.501519
453,0.0
484,0.0
2,4, 1, 4, 0, 6, 0.00,15.00,Wednesday
9,22128231.7564635
453,0.0
484,0.0
2,4, 1, 4, 0, 6,15.00,30.00,Wednesday
9,22128231.7564635
453,0.0
484,0.0
2,4, 1, 4, 0, 6,30.00,45.00,Wednesday
9,22128231.7564635
453,0.0
484,0.0
2,4, 1, 4, 0, 6,45.00,60.00,Wednesday
9,22128231.7564635
453,0.0
484,0.0
2,4, 1, 4, 0, 7, 0.00,15.00,Wednesday
9,22128231.7564635
453,61097964.7121798
484,1212865.67323163
2,4, 1, 4, 0, 7,15.00,30.00,Wednesday
9,22128231.7564635
453,18161407.4880995
484,0.0
2,4, 1, 4, 0, 7,30.00,45.00,Wednesday
9,22128231.7564635
453,45384638.9403455
484,0.0
2,4, 1, 4, 0, 7,45.00,60.00,Wednesday
9,22128231.7564635
453,19881386.2175725
484,0.0
2,4, 1, 4, 0, 8, 0.00,15.00,Wednesday
9,29138120.7762415
453,18768522.8581698
484,0.0
2,4, 1, 4, 0, 8,15.00,30.00,Wednesday
9,29138120.7762415
453,17947238.0643214
484,0.0
2,4, 1, 4, 0, 8,30.00,45.00,Wednesday
9,29138120.7762415
453,16798786.6533441
484,0.0
2,4, 1, 4, 0, 8,45.00,60.00,Wednesday
9,29138120.7762415
453,15576420.7296928
484,0.0
2,4, 1, 4, 0, 9, 0.00,15.00,Wednesday
9,73446896.8937937
453,5148081.15191592
484,1782155.69029502
2,4, 1, 4, 0, 9,15.00,30.00,Wednesday
9,73446896.8937937
453,3783924.19851846
484,2885383.68188201
2,4, 1, 4, 0, 9,30.00,45.00,Wednesday
9,73446896.8937937
453,2401355.55825819
484,2398020.58543292
2,4, 1, 4, 0, 9,45.00,60.00,Wednesday
9,73446896.8937937
453,1616164.50804872
484,2638580.28571299
2,4, 1, 4, 0,10, 0.00,15.00,Wednesday
9,73446896.8937937
453,1083261.50431757
484,2802923.40893714
2,4, 1, 4, 0,10,15.00,30.00,Wednesday
9,73446896.8937937
453,572755.012993044
484,2927589.88905445
2,4, 1, 4, 0,10,30.00,45.00,Wednesday
9,73446896.8937937
453,146359.745699939
484,3046668.39861224
2,4, 1, 4, 0,10,45.00,60.00,Wednesday
9,73446896.8937937
453,0.0
484,3161864.21311976
2,4, 1, 4, 0,11, 0.00,15.00,Wednesday
9,73446896.8937937
453,0.0
484,3284843.59417731
2,4, 1, 4, 0,11,15.00,30.00,Wednesday
9,73446896.8937937
453,0.0
484,3405543.71052964
2,4, 1, 4, 0,11,30.00,45.00,Wednesday
9,73446896.8937937
453,0.0
484,3524448.34871841
2,4, 1, 4, 0,11,45.00,60.00,Wednesday
9,73446896.8937937
453,0.0
484,3642156.11098247
2,4, 1, 4, 0,12, 0.00,15.00,Wednesday
9,73446896.8937937
453,0.0
484,3748348.23586948
2,4, 1, 4, 0,12,15.00,30.00,Wednesday
9,73446896.8937937
453,0.0
484,3853781.97411777
2,4, 1, 4, 0,12,30.00,45.00,Wednesday
9,73446896.8937937
453,0.0
484,3958588.01943895
2,4, 1, 4, 0,12,45.00,60.00,Wednesday
9,73446896.8937937
453,0.0
484,4062945.55308472
2,4, 1, 4, 0,13, 0.00,15.00,Wednesday
9,68791075.0821501
453,0.0
484,3313202.78724858
2,4, 1, 4, 0,13,15.00,30.00,Wednesday
9,68791075.0821501
453,0.0
484,3427196.01850392
2,4, 1, 4, 0,13,30.00,45.00,Wednesday
9,68791075.0821501
453,0.0
484,3706220.48358663
2,4, 1, 4, 0,13,45.00,60.00,Wednesday
9,68791075.0821501
453,0.0
484,5264067.10587661
2,4, 1, 4, 0,14, 0.00,15.00,Wednesday
9,73446896.8937937
453,0.0
484,4525161.45539592
2,4, 1, 4, 0,14,15.00,30.00,Wednesday
9,73446896.8937937
453,0.0
484,4531394.94978597
2,4, 1, 4, 0,14,30.00,45.00,Wednesday
9,73446896.8937937
453,0.0
484,4538033.60033137
2,4, 1, 4, 0,14,45.00,60.00,Wednesday
9,73446896.8937937
453,0.0
484,4544361.6209113
2,4, 1, 4, 0,15, 0.00,15.00,Wednesday
9,73446896.8937937
453,0.0
484,4560224.78482787
2,4, 1, 4, 0,15,15.00,30.00,Wednesday
9,73446896.8937937
453,0.0
484,4575459.25342653
2,4, 1, 4, 0,15,30.00,45.00,Wednesday
9,73446896.8937937
453,0.0
484,4590216.22404859
2,4, 1, 4, 0,15,45.00,60.00,Wednesday
9,73446896.8937937
453,0.0
484,4604461.24353893
2,4, 1, 4, 0,16, 0.00,15.00,Wednesday
9,73446896.8937937
453,0.0
484,4608886.82892495
2,4, 1, 4, 0,16,15.00,30.00,Wednesday
9,73446896.8937937
453,0.0
484,4612326.58840143
2,4, 1, 4, 0,16,30.00,45.00,Wednesday
9,73446896.8937937
453,0.0
484,4614560.75323788